# vtk DataFile Version 2.0
File /proj/athena/data/Data/Cambridge-MRI-DWI-MEEG-BOLD/BBelaoucha/Pre-processing/CGAL/S1/Results/SmoothSurface/Label_0.vtk
ASCII
DATASET POLYDATA
POINTS 10003 float
-0.0748325 -0.0176183 0.0575048
-0.0742520 0.0205742 0.0504417
-0.0741811 0.0189330 0.0512088
-0.0747884 -0.0168045 0.0570666
-0.0744218 -0.0169496 0.0590444
-0.0748449 -0.0200447 0.0545836
-0.0748997 -0.0195060 0.0564647
-0.0741177 0.0234777 0.0501612
-0.0743833 -0.0189888 0.0590088
-0.0740550 0.0257249 0.0509445
-0.0745145 -0.0162596 0.0581496
-0.0746274 -0.0176574 0.0557569
-0.0746977 0.0216095 0.0521224
-0.0745618 -0.0219660 0.0526128
-0.0742954 -0.0212427 0.0585780
-0.0745319 0.0194115 0.0527614
-0.0748564 0.0210136 0.0543581
-0.0734841 0.0183897 0.0498310
-0.0747085 -0.0208973 0.0572232
-0.0743593 0.0263473 0.0527590
-0.0742031 -0.0228376 0.0572044
-0.0746404 -0.0221598 0.0551680
-0.0719710 -0.0184624 0.0486759
-0.0742793 -0.0159977 0.0571888
-0.0747247 0.0236801 0.0529597
-0.0737221 -0.0226898 0.0589657
-0.0748667 0.0226573 0.0555200
-0.0721671 0.0173119 0.0483893
-0.0737705 -0.0156165 0.0597880
-0.0735039 -0.0167098 0.0610972
-0.0739186 -0.0230526 0.0499077
-0.0729473 -0.0170808 0.0626953
-0.0738015 0.0220603 0.0487717
-0.0736699 -0.0151009 0.0587562
-0.0736452 0.0180342 0.0636889
-0.0727865 -0.0197649 0.0487509
-0.0740590 0.0190759 0.0616142
-0.0734906 -0.0254676 0.0554374
-0.0737744 0.0193402 0.0635707
-0.0720201 -0.0176414 0.0493164
-0.0739165 0.0211676 0.0623821
-0.0743840 0.0214670 0.0600470
-0.0728949 0.0189876 0.0478625
-0.0733640 0.0282355 0.0506356
-0.0731776 0.0182602 0.0652078
-0.0732720 -0.0184997 0.0618834
-0.0743769 -0.0191254 0.0533551
-0.0735316 0.0203749 0.0484615
-0.0736663 0.0175398 0.0519306
-0.0729990 -0.0219431 0.0482119
-0.0719433 0.0184187 0.0469854
-0.0731500 -0.0274603 0.0490390
-0.0737150 -0.0158964 0.0561693
-0.0711125 -0.0171681 0.0491823
-0.0746454 0.0190610 0.0550705
-0.0726029 0.0193272 0.0662597
-0.0741359 -0.0204696 0.0514307
-0.0732504 0.0204650 0.0645864
-0.0740201 0.0235564 0.0606472
-0.0725368 0.0167822 0.0499446
-0.0726264 -0.0237498 0.0603490
-0.0720833 -0.0175884 0.0643022
-0.0710097 0.0170907 0.0471064
-0.0733915 -0.0269496 0.0531880
-0.0735126 -0.0167735 0.0544209
-0.0733660 -0.0210793 0.0607246
-0.0721528 -0.0145879 0.0619571
-0.0707845 0.0281126 0.0456719
-0.0727229 0.0268408 0.0482976
-0.0731501 0.0239340 0.0477829
-0.0745602 0.0238816 0.0576338
-0.0732365 -0.0279705 0.0502440
-0.0743675 0.0269328 0.0543123
-0.0724652 0.0193426 0.0469186
-0.0730734 -0.0247786 0.0581434
-0.0737627 0.0284440 0.0528435
-0.0727710 0.0170626 0.0659429
-0.0726075 -0.0181826 0.0498801
-0.0742709 -0.0244043 0.0513501
-0.0742366 -0.0245762 0.0531454
-0.0730928 0.0170492 0.0507739
-0.0745105 0.0198112 0.0576908
-0.0721883 0.0174544 0.0670108
-0.0733195 -0.0237773 0.0482737
-0.0716686 -0.0169690 0.0499832
-0.0731068 -0.0146866 0.0600765
-0.0718813 0.0256025 0.0462224
-0.0721104 0.0295633 0.0486101
-0.0704963 -0.0143143 0.0651453
-0.0728030 -0.0286711 0.0518025
-0.0739506 0.0258738 0.0590130
-0.0734879 -0.0202269 0.0498998
-0.0711586 -0.0174365 0.0659989
-0.0747425 0.0249584 0.0548585
-0.0731751 -0.0256738 0.0483578
-0.0730693 -0.0147618 0.0577145
-0.0730298 0.0233553 0.0634134
-0.0728979 0.0166593 0.0648266
-0.0703058 -0.0181496 0.0479357
-0.0722547 -0.0281994 0.0479169
-0.0709461 0.0162299 0.0479954
-0.0716515 -0.0294369 0.0542693
-0.0707613 0.0300159 0.0467019
-0.0723734 -0.0297223 0.0503970
-0.0737893 -0.0258766 0.0499838
-0.0719253 -0.0201570 0.0476932
-0.0722493 0.0234777 0.0649792
-0.0696955 -0.0164721 0.0491717
-0.0736145 0.0285896 0.0551764
-0.0729339 0.0220694 0.0472169
-0.0722392 0.0236395 0.0463037
-0.0713621 -0.0249240 0.0617136
-0.0718477 -0.0275448 0.0572502
-0.0726172 0.0204091 0.0469348
-0.0693120 0.0304083 0.0449074
-0.0715789 0.0191267 0.0678570
-0.0740564 0.0174214 0.0543163
-0.0721294 -0.0159345 0.0636103
-0.0743360 0.0178454 0.0562184
-0.0733160 0.0257035 0.0610374
-0.0710937 0.0157667 0.0494175
-0.0730041 0.0299097 0.0513830
-0.0722169 0.0306279 0.0497782
-0.0734970 0.0171913 0.0628691
-0.0697232 -0.0145422 0.0668992
-0.0720762 -0.0267005 0.0470287
-0.0721157 -0.0200907 0.0636613
-0.0738174 -0.0264472 0.0515468
-0.0703884 0.0183802 0.0458837
-0.0711683 -0.0188047 0.0657677
-0.0732880 -0.0180732 0.0519115
-0.0722003 0.0162233 0.0664016
-0.0713698 -0.0265497 0.0598122
-0.0723874 -0.0292765 0.0491227
-0.0718154 -0.0222933 0.0467233
-0.0744623 0.0262035 0.0558500
-0.0741577 0.0265691 0.0571277
-0.0719481 0.0157435 0.0515639
-0.0717045 -0.0227685 0.0628344
-0.0720564 0.0216710 0.0662051
-0.0717150 -0.0164541 0.0514180
-0.0688658 0.0291626 0.0438910
-0.0700122 -0.0156999 0.0506442
-0.0733905 0.0282141 0.0577818
-0.0700411 -0.0132404 0.0639682
-0.0733319 0.0272903 0.0595559
-0.0706673 0.0208224 0.0685821
-0.0720094 0.0248335 0.0642696
-0.0716430 0.0197640 0.0461404
-0.0720491 -0.0138547 0.0600171
-0.0688751 0.0124507 0.0622633
-0.0693838 0.0126902 0.0640386
-0.0730637 0.0162273 0.0532851
-0.0724285 -0.0243651 0.0470774
-0.0725407 0.0303416 0.0562545
-0.0735064 0.0169077 0.0606433
-0.0681316 0.0119688 0.0635503
-0.0704713 -0.0159871 0.0665732
-0.0698983 -0.0268847 0.0621673
-0.0722345 0.0262167 0.0626440
-0.0711900 0.0245184 0.0452156
-0.0701299 0.0133870 0.0654409
-0.0679800 0.0330916 0.0452388
-0.0704455 -0.0228410 0.0455136
-0.0708804 0.0171589 0.0688670
-0.0700491 0.0266173 0.0444038
-0.0713370 0.0241936 0.0657412
-0.0702063 -0.0177872 0.0673306
-0.0675228 0.0129499 0.0513872
-0.0705808 0.0229996 0.0675807
-0.0691882 -0.0131398 0.0656674
-0.0695168 0.0222468 0.0693208
-0.0720641 -0.0146657 0.0561694
-0.0705554 0.0319566 0.0478725
-0.0703055 0.0161706 0.0473346
-0.0714809 -0.0135827 0.0583874
-0.0738024 0.0164458 0.0561220
-0.0710655 0.0156208 0.0679350
-0.0728008 0.0304440 0.0528085
-0.0697347 -0.0327809 0.0529371
-0.0697045 -0.0197031 0.0675489
-0.0669218 0.0351933 0.0457054
-0.0737760 0.0167301 0.0578692
-0.0693060 0.0164798 0.0464574
-0.0689251 -0.0166384 0.0486087
-0.0703306 -0.0249084 0.0634114
-0.0706321 -0.0205272 0.0465853
-0.0686742 -0.0147451 0.0684738
-0.0673862 -0.0151022 0.0499385
-0.0719961 0.0315868 0.0509537
-0.0686586 0.0138143 0.0508886
-0.0708803 -0.0244093 0.0454493
-0.0691896 -0.0191173 0.0466794
-0.0721553 0.0312956 0.0543006
-0.0712782 -0.0311682 0.0514711
-0.0724688 0.0279655 0.0606113
-0.0712112 -0.0216866 0.0644510
-0.0706462 -0.0285463 0.0586795
-0.0725661 0.0156529 0.0632777
-0.0714599 -0.0239946 0.0459877
-0.0692401 0.0204778 0.0703366
-0.0706615 -0.0132293 0.0622063
-0.0700822 -0.0247450 0.0449944
-0.0709804 -0.0306931 0.0479411
-0.0728390 0.0286398 0.0590986
-0.0713387 0.0147961 0.0659037
-0.0710740 0.0221753 0.0453580
-0.0693114 0.0239880 0.0684410
-0.0706765 -0.0207958 0.0657369
-0.0713193 -0.0311524 0.0496124
-0.0702842 0.0201590 0.0451478
-0.0697853 0.0246457 0.0440964
-0.0685414 0.0125565 0.0663092
-0.0686414 -0.0136182 0.0673168
-0.0683170 0.0178271 0.0450798
-0.0698048 -0.0305106 0.0572395
-0.0717965 -0.0155866 0.0536926
-0.0672779 0.0315925 0.0434211
-0.0676736 -0.0138452 0.0689276
-0.0702199 0.0187570 0.0696795
-0.0685919 0.0218404 0.0704884
-0.0693223 -0.0236721 0.0447217
-0.0695379 -0.0321168 0.0550011
-0.0707547 -0.0289929 0.0465335
-0.0730843 0.0157862 0.0549219
-0.0693372 0.0152208 0.0480521
-0.0682350 -0.0287001 0.0628642
-0.0712016 0.0322702 0.0494512
-0.0704476 0.0144094 0.0527633
-0.0715358 0.0320100 0.0553903
-0.0722998 0.0300242 0.0579989
-0.0735022 0.0158629 0.0570441
-0.0690853 0.0193661 0.0447478
-0.0712794 0.0284606 0.0619547
-0.0720636 0.0296034 0.0593528
-0.0698696 -0.0145822 0.0529554
-0.0685902 0.0128467 0.0595861
-0.0713004 0.0325584 0.0522570
-0.0703848 0.0134152 0.0617870
-0.0713487 0.0297915 0.0603358
-0.0696498 0.0134602 0.0670425
-0.0668559 0.0127162 0.0510515
-0.0717036 0.0149716 0.0538285
-0.0706280 -0.0129157 0.0599906
-0.0696460 0.0170524 0.0703943
-0.0709382 -0.0260362 0.0457704
-0.0711229 0.0140294 0.0636859
-0.0705253 0.0270535 0.0642598
-0.0702963 0.0335309 0.0539385
-0.0647884 0.0343554 0.0426860
-0.0692176 0.0347523 0.0514631
-0.0691448 -0.0157532 0.0685303
-0.0679518 0.0236262 0.0700392
-0.0693776 -0.0325779 0.0473099
-0.0690180 -0.0223811 0.0449243
-0.0667621 0.0301729 0.0424679
-0.0668648 0.0115555 0.0640388
-0.0697725 0.0154844 0.0697788
-0.0667201 0.0126609 0.0523229
-0.0679664 0.0280550 0.0429391
-0.0684595 0.0343321 0.0471019
-0.0699585 -0.0312092 0.0467397
-0.0689602 0.0233164 0.0437787
-0.0689223 -0.0296207 0.0604060
-0.0697678 -0.0328320 0.0488036
-0.0691915 -0.0215882 0.0673768
-0.0698081 0.0253242 0.0667635
-0.0689078 0.0134628 0.0549025
-0.0714506 0.0316683 0.0567894
-0.0676935 0.0118662 0.0650382
-0.0691959 -0.0208559 0.0456629
-0.0677680 -0.0171726 0.0477346
-0.0705468 0.0300659 0.0612182
-0.0686096 -0.0185929 0.0692364
-0.0703557 -0.0132336 0.0575120
-0.0673243 0.0119074 0.0622791
-0.0702111 -0.0127881 0.0613994
-0.0687780 -0.0126561 0.0650603
-0.0661995 0.0365364 0.0466507
-0.0728726 0.0155022 0.0594857
-0.0699823 0.0141921 0.0681248
-0.0686276 0.0262798 0.0432630
-0.0675807 -0.0136944 0.0524295
-0.0676919 -0.0346097 0.0478920
-0.0703144 0.0310776 0.0601579
-0.0644132 0.0366580 0.0441864
-0.0697325 -0.0126113 0.0592024
-0.0721285 0.0148677 0.0614400
-0.0631708 0.0363827 0.0424099
-0.0694194 -0.0263748 0.0447955
-0.0682271 -0.0268414 0.0647381
-0.0696361 -0.0233927 0.0655689
-0.0707872 0.0314861 0.0585705
-0.0685201 0.0183551 0.0714801
-0.0686581 -0.0251262 0.0443930
-0.0663784 -0.0143977 0.0705983
-0.0670693 -0.0252428 0.0439582
-0.0704622 0.0334085 0.0502404
-0.0680902 0.0259133 0.0681954
-0.0681717 -0.0346275 0.0526695
-0.0655722 -0.0265484 0.0435438
-0.0687743 -0.0342407 0.0516990
-0.0665109 -0.0360021 0.0489550
-0.0691355 -0.0168122 0.0687430
-0.0677183 0.0151511 0.0467339
-0.0692014 -0.0284831 0.0451632
-0.0730434 0.0153766 0.0563897
-0.0664055 -0.0297596 0.0644184
-0.0674102 -0.0211774 0.0697143
-0.0697769 -0.0331975 0.0512680
-0.0706241 0.0329586 0.0556760
[...]
 CELL_DATA 19998
POINT_DATA 10003
SCALARS Cluster float 1
LOOKUP_TABLE default
0
6
9
4
0
7
1
2
8
3
4
5
6
7
8
9
10
11
13
12
13
46
14
15
56
16
17
18
23
19
20
21
22
23
24
25
48
26
27
50
27
28
29
30
60
31
42
32
33
34
35
36
37
69
78
38
55
90
54
79
39
40
41
53
42
89
99
65
52
43
87
44
45
98
72
45
84
83
82
46
47
48
49
57
50
51
107
52
94
53
54
55
111
56
57
58
59
60
61
62
63
64
65
66
67
68
97
69
70
71
133
121
72
73
74
75
76
77
78
95
79
80
80
81
104
148
127
82
139
135
83
84
105
85
86
87
93
88
89
90
91
92
159
93
94
95
96
97
98
99
100
103
149
101
126
102
103
104
105
106
107
165
119
108
173
109
110
111
112
134
113
129
114
152
150
115
116
132
117
147
118
119
155
120
181
121
122
169
123
124
161
130
125
126
212
157
127
177
128
164
129
186
130
131
158
132
133
134
135
178
213
136
137
138
139
140
141
142
143
144
145
146
147
148
149
150
151
152
153
179
154
155
156
157
158
159
160
168
193
190
188
161
162
192
163
164
165
221
166
167
168
169
202
170
171
172
185
173
283
174
175
246
176
177
178
231
263
253
179
180
250
181
182
183
184
185
186
217
191
187
188
230
288
189
190
191
192
193
194
195
196
197
198
264
199
248
200
201
202
215
222
203
204
205
206
207
208
209
299
227
226
252
210
211
212
282
235
213
214
215
216
217
218
219
220
247
221
222
223
224
225
226
227
228
229
230
231
232
233
234
235
303
254
236
237
238
239
240
241
242
243
287
244
245
246
247
308
248
261
331
249
250
280
251
304
300
252
253
254
336
255
256
257
330
323
290
258
345
328
320
259
342
270
260
261
262
263
264
274
265
319
266
266
267
278
354
268
269
270
271
272
273
274
275
276
338
277
278
351
279
280
281
282
283
284
285
357
286
287
288
390
415
289
290
291
292
293
362
294
295
296
297
344
309
298
299
321
300
326
301
302
404
327
303
304
305
306
307
371
308
314
401
392
309
343
310
311
414
312
313
314
315
377
365
316
394
317
318
319
436
320
321
378
322
323
416
324
325
326
364
433
327
375
328
396
329
330
331
332
333
334
335
336
420
337
402
407
338
339
340
341
342
343
344
398
345
465
346
347
348
397
349
350
351
352
476
353
422
457
363
368
379
354
481
399
374
355
356
357
358
372
359
360
426
373
361
362
363
364
365
366
367
368
369
458
370
479
383
371
372
373
374
375
376
377
378
379
380
381
382
442
456
450
383
389
421
384
453
385
386
387
388
389
390
391
392
393
394
449
395
396
397
398
462
399
406
400
401
402
473
403
492
404
405
467
406
435
407
408
475
409
410
510
411
412
413
414
415
416
417
483
459
418
419
420
421
422
423
424
425
426
427
546
428
429
430
531
431
432
441
499
433
434
485
435
445
540
541
529
521
436
443
472
471
539
437
452
438
439
550
440
494
441
442
443
444
555
445
446
447
554
478
448
544
449
515
450
451
452
453
548
454
512
455
456
489
457
458
459
556
460
461
487
462
463
464
465
590
466
467
468
504
469
572
470
471
472
473
613
474
475
476
477
478
479
480
560
481
482
505
611
483
484
485
486
487
542
575
488
594
489
490
503
491
492
493
494
495
496
497
498
499
500
501
663
502
636
503
565
588
504
505
506
517
507
508
509
510
511
654
512
513
514
604
515
516
517
518
602
519
520
521
522
523
524
525
643
552
526
527
528
529
618
570
530
531
532
533
581
534
557
571
535
536
537
538
562
539
540
541
542
545
638
543
544
545
547
546
597
566
664
573
547
549
548
553
549
649
592
550
551
552
553
554
555
556
557
603
558
559
560
625
561
562
639
563
627
564
565
566
567
568
569
670
570
571
572
708
573
574
575
688
653
576
634
577
578
585
629
579
580
606
581
582
711
612
583
640
584
585
586
587
588
699
589
590
591
598
592
593
631
594
595
596
597
598
599
600
601
602
603
604
605
606
607
608
709
694
609
610
685
611
612
613
614
615
647
616
617
618
619
672
620
621
622
623
624
642
625
626
627
628
629
691
630
631
632
633
634
635
636
637
739
638
639
640
641
707
642
643
644
675
659
645
646
765
647
648
759
745
649
650
660
651
652
713
653
654
655
656
657
658
668
659
743
660
705
661
754
662
767
663
717
671
726
682
664
665
692
665
666
667
793
668
669
670
671
672
673
674
675
676
677
773
678
752
679
680
797
753
681
682
724
683
731
788
684
685
686
687
688
832
811
771
689
690
691
762
692
760
693
768
694
695
728
696
697
698
699
700
701
702
703
704
705
714
706
746
707
708
786
830
730
709
710
744
711
827
712
775
713
803
714
715
716
717
718
719
840
720
721
722
807
778
741
723
724
872
725
726
727
728
729
763
730
731
737
826
777
732
733
734
747
735
736
799
737
738
739
740
852
741
828
804
742
743
744
806
823
745
792
746
747
748
750
749
750
751
752
753
784
754
755
756
835
757
758
759
760
761
762
763
764
815
765
859
766
787
767
768
769
770
771
772
801
844
773
774
775
789
776
777
778
785
779
780
890
781
782
783
784
785
786
787
788
789
886
790
791
792
793
794
928
795
796
797
798
856
931
914
799
800
801
809
802
803
866
804
805
806
807
937
808
809
810
814
811
812
813
959
814
855
885
848
815
945
936
816
817
818
819
953
1042
820
821
918
822
867
823
824
825
826
889
827
828
829
830
831
832
833
834
835
836
873
837
981
996
958
972
838
842
839
901
840
910
841
842
843
854
844
845
869
846
847
848
860
849
850
851
852
853
868
854
917
855
861
856
941
980
857
870
858
893
862
859
860
861
862
863
864
865
866
867
883
882
868
943
869
975
870
871
872
1019
935
873
874
875
876
1012
884
948
877
924
877
964
878
879
880
954
881
882
883
884
885
898
886
887
1016
1025
984
888
889
890
891
892
893
894
895
896
949
897
946
982
976
1009
898
899
992
900
901
902
1056
903
904
905
906
907
908
1031
909
910
911
993
912
913
914
915
1004
916
917
918
919
978
920
921
922
923
924
925
926
927
1073
1064
998
928
929
969
930
1039
931
932
1005
997
933
934
935
936
937
938
939
940
941
1020
942
1044
943
944
1143
960
945
968
946
947
948
949
950
1018
951
952
953
961
954
957
955
971
1157
956
957
958
1085
959
960
1170
1112
961
962
963
964
965
966
967
985
968
969
1059
970
971
1147
972
973
1021
974
975
1028
994
976
977
978
1066
979
980
981
982
1096
983
984
1132
985
995
986
987
988
1032
989
990
991
992
993
994
995
1160
996
1034
1010
1172
1068
1038
997
998
999
1000
1001
1002
1003
1004
1106
1005
1006
1007
1008
1009
1041
1054
1010
1083
1011
1012
1090
1013
1051
1014
1015
1141
1016
1115
1017
1018
1019
1020
1021
1022
1023
1024
1050
1109
1025
1026
1027
1133
1028
1029
1030
1031
1032
1058
1033
1034
1035
1084
1098
1036
1037
1038
1091
1039
1162
1040
1041
1042
1043
1044
1045
1201
1140
1046
1047
1048
1049
1074
1050
1051
1189
1052
1211
1053
1054
1055
1056
1057
1058
1165
1059
1060
1198
1061
1062
1063
1064
1065
1066
1067
1068
1069
1128
1070
1207
1071
1072
1073
1074
1075
1151
1076
1077
1078
1079
1110
1080
1081
1082
1200
1083
1084
1085
1086
1087
1088
1089
1276
1167
1090
1091
1126
1092
1111
1093
1094
1095
1096
1097
1098
1099
1100
1101
1254
1144
1102
1103
1119
1104
1105
1259
1209
1106
1107
1178
1108
1154
1109
1110
1111
1112
1113
1114
1134
1115
1116
1228
1232
1221
1164
1117
1252
1118
1294
1202
1119
1120
1146
1121
1122
1155
1213
1123
1124
1125
1126
1127
1128
1129
1130
1131
1132
1238
1133
1134
1247
1135
1274
1136
1137
1138
1139
1218
1140
1249
1141
1326
1142
1143
1144
1145
1205
1146
1147
1148
1149
1196
1239
1150
1151
1243
1152
1251
1194
1153
1154
1253
1234
1155
1176
1156
1157
1171
1158
1159
1160
1233
1161
1278
1162
1242
1163
1284
1164
1165
1169
1166
1271
1167
1297
1168
1377
1169
1170
1171
1172
1173
1185
1174
1175
1258
1176
1177
1280
1187
1178
1179
1180
1181
1222
1182
1183
1184
1447
1185
1186
1187
1188
1220
1189
1190
1217
1191
1192
1193
1194
1195
1196
1240
1197
1360
1277
1268
1198
1199
1200
1201
1202
1203
1204
1205
1206
1472
1207
1327
1261
1208
1209
1210
1211
1380
1212
1213
1300
1214
1215
1309
1216
1264
1217
1218
1219
1220
1273
1221
1317
1222
1332
1223
1465
1224
1225
1226
1334
1229
1285
1257
1227
1228
1229
1230
1231
1232
1233
1439
1234
1413
1235
1236
1237
1238
1239
1240
1245
1241
1242
1255
1243
1244
1245
1246
1287
1359
1358
1325
1247
1248
1249
1250
1251
1252
1253
1335
1351
1254
1255
1256
1257
1258
1363
1259
1260
1260
1299
1311
1261
1262
1421
1355
1263
1264
1306
1399
1265
1266
1365
1267
1438
1268
1269
1270
1271
1272
1273
1274
1416
1275
1348
1417
1276
1277
1278
1433
1381
1391
1473
1344
1501
1279
1280
1423
1281
1282
1283
1459
1284
1285
1330
1382
1286
1480
1287
1519
1288
1289
1290
1291
1292
1293
1294
1295
1296
1364
1533
1297
1424
1404
1298
1412
1299
1415
1300
1522
1419
1301
1302
1302
1303
1304
1305
1306
1361
1307
1308
1454
1484
1309
1310
1425
1357
1311
1491
1312
1313
1314
1315
1453
1379
1316
1395
1317
1406
1318
1319
1345
1400
1556
1320
1321
1477
1322
1323
1324
1325
1326
1327
1388
1328
1329
1330
1331
1332
1333
1393
1334
1335
1336
1337
1552
1338
1339
1397
1504
1340
1341
1342
1343
1344
1345
1346
1347
1348
1349
1456
1574
1350
1409
1351
1352
1353
1354
1355
1356
1502
1357
1442
1358
1359
1360
1361
1529
1362
1363
1486
1364
1365
1610
1401
1466
1366
1367
1368
1369
1514
1476
1370
1371
1372
1528
1373
1374
1524
1375
1376
1557
1392
1544
1647
1377
1378
1379
1380
1381
1382
1383
1384
1385
1618
1386
1498
1387
1388
1390
1389
1445
1390
1391
1392
1393
1547
1394
1395
1505
1396
1397
1398
1399
1400
1401
1402
1403
1404
1531
1444
1405
1406
1407
1408
1597
1409
1481
1410
1554
1411
1412
1413
1414
1527
1415
1416
1417
1418
1595
1419
1420
1421
1608
1631
1422
1423
1424
1611
1425
1434
1426
1427
1428
1429
1430
1485
1596
1431
1550
1432
1433
1434
1435
1436
1437
1548
1438
1536
1439
1440
1441
1442
1443
1444
1445
1446
1517
1447
1448
1449
1576
1450
1451
1452
1453
1461
1454
1455
1456
1457
1458
1459
1479
1470
1460
1461
1462
1463
1464
1492
1475
1662
1465
1466
1467
1468
1571
1469
1470
1471
1472
1473
1474
1475
1476
1477
1559
1478
1478
1537
1479
1687
1480
1481
1566
1568
1670
1482
1573
1483
1721
1484
1660
1485
1486
1487
1488
1489
1490
1491
1492
1493
1496
1494
1495
1496
1777
1499
1497
1498
1499
1500
1600
1501
1502
1503
1504
1505
1532
1506
1511
1507
1508
1509
1632
1708
1510
1511
1676
1562
1588
1512
1513
1514
1515
1579
1516
1517
1518
1519
1520
1521
1630
1682
1612
1522
1525
1523
1524
1711
1525
1526
1570
1527
1528
1635
1529
1530
1531
1532
1533
1534
1535
1536
1698
1537
1538
1539
1540
1765
1541
1650
1542
1572
1543
1544
1545
1599
1546
1547
1548
1549
1550
1551
1552
1553
1554
1555
1731
1556
1557
1645
1605
1558
1559
1664
1734
1560
1561
1562
1563
1564
1565
1814
1566
1690
1659
1567
1568
1569
1570
1571
1572
1751
1573
1574
1575
1663
1576
1577
1578
1579
1580
1581
1582
1583
1584
1625
1585
1696
1586
1587
1704
1588
1589
1590
1795
1665
1591
1592
1617
1593
1594
1764
1595
1596
1597
1598
1599
1600
1838
1601
1730
1602
1603
1604
1605
1757
1606
1607
1608
1609
1610
1681
1611
1723
1612
1613
1614
1694
1615
1616
1691
1621
1623
1617
1618
1619
1628
1620
1749
1661
1668
1684
1743
1621
1622
1623
1624
1625
1626
1680
1627
1628
1629
1630
1685
1759
1631
1632
1655
1633
1634
1635
1636
1637
1742
1638
1774
1639
1640
1641
1642
1643
1644
1645
1775
1658
1884
1646
1819
1647
1648
1649
1650
1651
1737
1652
1653
1755
1654
1655
1705
1772
1656
1768
1709
1779
1657
1658
1776
1659
1660
1661
1662
1663
1664
1665
1702
1732
1666
1667
1668
1669
1670
1671
1672
1812
1673
1767
1674
1675
1676
1677
1678
1679
1680
1681
1682
1683
1684
1685
1686
1687
1688
1689
1690
1691
1692
1693
1694
1695
1696
1697
1698
1699
1700
1701
1806
1702
1703
1706
1704
1832
1705
1706
1707
1708
1789
1798
1709
1710
1711
1712
1713
1714
1715
1718
1716
1717
1718
1748
1719
1720
1721
1722
1723
1724
1729
1725
1726
1727
1728
1813
1729
1730
1731
1732
1733
1734
1735
1835
1907
1736
1829
1738
1737
1738
1761
1739
1740
1871
1788
1859
1741
1885
1742
1743
1744
1745
1746
1747
1748
1875
1749
1946
1750
1751
1752
1753
1833
1754
1914
1755
1756
1757
1758
1759
1760
1761
1762
1763
1764
1765
1766
1767
1796
1768
1769
1770
1771
1772
1876
1773
1774
1845
1775
1776
1777
1778
1779
1899
1864
1780
1781
1782
1783
1847
1784
1785
1895
1957
1786
1809
1869
1787
1788
1789
1950
1790
1791
1850
1792
1793
1794
1954
1865
1795
1961
1796
1797
1870
1798
1799
1800
1801
1802
1970
1903
1906
1803
1804
1805
1806
1807
1857
1888
1808
1809
1945
1995
1810
1811
1812
1938
1813
1814
1841
1815
1968
1816
1817
1818
1932
1819
1820
1821
2022
1822
1823
1824
1825
1826
1967
1827
1896
1853
1828
1829
1830
1831
1832
1833
1834
1835
1836
1837
1925
1877
1985
1838
1839
1933
1840
1841
1983
1842
1842
1943
1996
1843
1844
2084
1856
1845
1846
1952
1847
1848
1849
1850
1851
1852
1853
1854
1855
1856
1857
1858
1980
2016
1916
1859
1860
1861
1862
1975
1863
1864
1865
1866
1867
1868
1898
2040
1869
1998
1870
1871
1904
1917
1937
1872
1977
1949
1873
1874
1955
1875
2108
1876
1877
1878
1879
1880
1918
1881
1882
1883
1884
1885
1973
2010
1886
1887
1888
2000
1889
1890
1891
1892
1893
1894
1988
1895
1896
2034
1897
1941
1898
1899
1900
1901
1902
1903
1904
2032
1905
1906
1930
2020
1963
1907
1908
1909
1910
1911
1912
1913
1914
1915
1916
2053
1917
1918
1919
1920
1921
1922
2045
1923
1924
1925
1926
1927
1928
1929
1930
1931
2076
1932
1989
1933
1934
1935
1936
2081
1937
1938
2028
1939
1940
1941
1942
1943
1944
2113
2014
1945
1946
1978
1947
1948
1949
1950
1951
1952
1971
1958
1986
1984
2008
1953
1954
1955
1956
2042
1957
2130
1958
1959
1979
1960
1961
1999
1962
2030
1963
1964
1965
2019
1966
1967
1968
1969
1970
1971
1972
1973
1974
1975
2073
1976
2060
1977
1992
1978
2078
1979
1980
1981
1982
2107
2057
2047
1983
1984
1985
1986
2133
2043
1987
1988
2195
1993
1989
1990
1991
1992
1993
1994
2129
1995
1996
1997
1998
2280
2037
1999
2000
2001
2002
2003
2004
2021
2203
2005
2006
2007
2008
2009
2010
2011
2161
2012
2159
2013
2014
2015
2085
2016
2017
2018
2019
2038
2031
2020
2021
2022
2023
2228
2156
2024
2029
2025
2026
2189
2027
2028
2041
2029
2030
2136
2199
2031
2032
2033
2034
2035
2036
2037
2038
2039
2202
2040
2041
2042
2043
2125
2044
2045
2215
2046
2047
2166
2048
2049
2050
2051
2052
2053
2054
2055
2056
2057
2186
2058
2059
2060
2163
2061
2068
2062
2096
2063
2064
2065
2066
2067
2068
2150
2069
2070
2071
2072
2111
2073
2074
2075
2076
2077
2078
2079
2080
2081
2173
2082
2083
2084
2118
2085
2141
2106
2086
2087
2088
2089
2120
2090
2152
2242
2254
2091
2115
2092
2185
2093
2094
2095
2096
2097
2098
2099
2100
2101
2162
2102
2103
2104
2148
2105
2106
2175
2309
2107
2108
2109
2110
2191
2111
2197
2112
2144
2113
2114
2115
2116
2273
2117
2177
2118
2119
2187
2120
2276
2121
2122
2123
2160
2140
2124
2125
2158
2126
2208
2326
2127
2137
2168
2128
2277
2129
2237
2130
2329
2131
2132
2133
2134
2135
2136
2137
2138
2139
2294
2140
2217
2141
2204
2142
2143
2222
2144
2145
2146
2147
2212
2148
2149
2150
2253
2151
2152
2153
2154
2155
2156
2157
2158
2159
2160
2161
2162
2163
2301
2180
2164
2221
2165
2166
2167
2168
2169
2223
2190
2170
2312
2171
2172
2173
2241
2174
2175
2378
2176
2177
2229
2178
2179
2180
2181
2182
2183
2240
2184
2185
2186
2187
2188
2189
2190
2191
2291
2192
2193
2194
2195
2264
2196
2197
2198
2199
2200
2201
2202
2203
2204
2216
2205
2206
2207
2293
2260
2323
2208
2209
2210
2211
2212
2213
2214
2215
2340
2334
2216
2383
2217
2218
2289
2219
2386
2220
2221
2222
2235
2223
2224
2382
2225
2226
2227
2228
2229
2304
2367
2270
2230
2231
2373
2261
2232
2233
2234
2267
2235
2236
2259
2238
2248
2237
2238
2239
2240
2298
2241
2242
2243
2360
2244
2245
2246
2247
2381
2248
2249
2250
2438
2251
2299
2252
2253
2254
2255
2322
2443
2256
2257
2258
2259
2260
2261
2268
2402
2262
2278
2263
2264
2265
2372
2266
2281
2317
2448
2267
2357
2268
2435
2269
2437
2270
2271
2303
2408
2272
2273
2274
2275
2276
2388
2277
2278
2279
2280
2281
2282
2283
2284
2285
2316
2305
2292
2286
2396
2287
2450
2288
2289
2404
2302
2296
2290
2291
2347
2371
2292
2293
2294
2295
2296
2297
2298
2299
2300
2301
2302
2303
2304
2391
2321
2305
2306
2433
2338
2307
2568
2308
2315
2512
2309
2310
2311
2332
2312
2494
2313
2314
2315
2316
2317
2318
2319
2320
2399
2353
2321
2322
2323
2324
2337
2325
2384
2471
2326
2327
2328
2329
2330
2331
2332
2333
2393
2453
2334
2335
2336
2337
2420
2514
2370
2338
2339
2628
2340
2341
2398
2481
2354
2342
2343
2344
2345
2510
2346
2442
2347
2350
2348
2379
2380
2349
2350
2351
2352
2353
2354
2397
2457
2355
2356
2357
2440
2358
2359
2360
2503
2361
2362
2488
2363
2364
2413
2365
2366
2416
2392
2367
2368
2369
2370
2371
2372
2548
2373
2374
2375
2376
2377
2378
2485
2379
2380
2501
2381
2456
2382
2383
2384
2385
2386
2387
2388
2428
2390
2577
2389
2462
2390
2525
2530
2391
2392
2393
2394
2395
2396
2397
2398
2399
2400
2417
2401
2402
2403
2404
2405
2406
2407
2466
2408
2409
2534
2543
2410
2411
2412
2413
2414
2415
2416
2417
2418
2419
2420
2421
2476
2464
2422
2423
2424
2425
2426
2427
2428
2429
2430
2431
2432
2478
2597
2433
2579
2434
2484
2435
2436
2437
2438
2508
2463
2439
2489
2440
2441
2442
2443
2444
2578
2445
2446
2447
2448
2593
2633
2449
2511
2450
2451
2473
2452
2453
2454
2455
2456
2457
2458
2459
2675
2460
2461
2462
2463
2464
2465
2601
2466
2547
2467
2468
2650
2469
2470
2518
2471
2545
2472
2473
2474
2475
2476
2539
2477
2478
2479
2651
2610
2480
2499
2481
2482
2604
2483
2580
2613
2484
2485
2486
2522
2487
2635
2505
2488
2489
2490
2491
2492
2493
2494
2495
2496
2497
2498
2499
2599
2500
2501
2502
2503
2504
2505
2506
2507
2620
2508
2509
2510
2511
2571
2512
2574
2723
2521
2513
2563
2707
2514
2515
2516
2517
2666
2518
2519
2520
2521
2522
2523
2524
2770
2525
2526
2602
2527
2528
2693
2616
2542
2529
2530
2531
2551
2532
2533
2534
2535
2536
2544
2537
2560
2538
2546
2539
2540
2541
2542
2626
2648
2652
2543
2636
2544
2699
2545
2546
2654
2547
2548
2714
2549
2550
2551
2552
2720
2646
2627
2553
2708
2573
2554
2555
2752
2697
2556
2557
2558
2559
2560
2561
2562
2641
2726
2563
2564
2565
2566
2631
2567
2568
2569
2679
2570
2571
2572
2573
2574
2575
2645
2576
2577
2578
2753
2802
2579
2580
2611
2581
2582
2751
2583
2584
2585
2586
2683
2743
2587
2588
2589
2592
2812
2590
2591
2623
2592
2608
2593
2694
2594
2658
2595
2596
2597
2598
2599
2600
2601
2602
2662
2603
2604
2605
2606
2607
2608
2609
2610
2703
2611
2612
2613
2734
2614
2640
2615
2616
2644
2617
2618
2619
2638
2620
2621
2622
2623
2624
2625
2626
2829
2627
2628
2787
2784
2629
2630
2631
2632
2677
2633
2634
2690
2635
2636
2637
2638
2639
2640
2655
2641
2642
2643
2644
2645
2646
2647
2648
2649
2650
2651
2652
2653
2654
2655
2702
2727
2656
2657
2739
2689
2722
2658
2687
2659
2733
2660
2661
2662
2663
2664
2665
2819
2666
2667
2668
2669
2670
2794
2671
2672
2673
2674
2942
2675
2676
2908
2677
2678
2766
2679
2721
2680
2681
2682
2683
2684
2705
2685
2686
2816
2700
2687
2688
2689
2690
2691
2692
2777
2693
2759
2694
2771
2695
2696
2698
2697
2698
2699
2700
2886
2701
2865
2835
2702
2703
2709
2854
2704
2705
2706
2707
2708
2709
2710
2871
2718
2790
2869
2711
2712
2713
2714
2837
2893
2900
2715
2716
2717
2718
2719
2720
2813
2721
2722
2723
2724
2906
2725
2963
2728
2800
2726
2727
2728
2762
2729
2730
2849
2883
2916
2938
2731
2757
2764
2732
2733
2734
2748
2735
2881
2736
2737
2738
2739
2864
2745
2746
2740
2741
2742
2743
2744
2745
2746
2897
2786
2747
2798
2748
2749
2750
2863
2751
2870
2752
2753
2754
2755
2756
2780
2842
2757
2758
2759
2760
2761
2762
2969
2763
2764
2970
2765
2766
2767
2768
2769
2770
2771
2868
2772
2773
2774
2788
2775
2776
2777
2793
2918
2778
2779
2780
2781
2782
2783
2866
2784
2785
2786
2787
2859
2788
2789
2790
2791
2792
2793
2794
2795
2796
2858
2825
2797
2934
2798
2799
2800
3002
2801
2802
2803
2804
2847
2940
2805
2806
2807
2808
2809
2810
2810
2811
2812
2813
2814
2815
2816
2817
2818
2819
2820
2903
2821
2822
2823
2824
2825
2826
2827
3033
2922
2828
3006
2829
2830
2999
2831
2832
2891
2833
2834
2835
2995
2836
2917
2837
2838
2873
2839
2840
2861
2841
2928
2842
2843
2844
2845
2986
2846
2847
3039
2915
2848
2849
2939
2850
2851
2852
2853
2971
2854
2855
2856
2857
3086
2858
2859
2860
2861
2862
2863
2930
3010
2864
2865
2866
3025
2975
2867
2868
2869
3078
2870
2943
2968
2871
2899
2872
2873
2874
2875
2876
3030
2889
2877
2878
2994
2879
2880
2881
3130
2882
2883
2884
2984
2885
2886
2921
2998
2887
3008
2902
2888
2889
2890
2891
2892
2893
2894
2895
2896
2897
3070
3055
2898
2899
2900
2941
2901
2902
2903
3090
2988
2952
2904
2905
2906
2907
2908
2909
2910
2911
2912
2913
3164
2914
2915
2916
2917
2918
2919
2920
2921
2922
2993
3118
2923
2924
2925
2926
2927
2928
2929
2930
2931
2932
2933
2934
2935
2936
2937
2938
2939
2940
2941
2942
2996
2943
2960
3129
2944
2997
2974
2945
2946
2947
2947
3057
2948
3009
2949
3193
2950
2951
2952
2953
3053
3135
3013
2954
2955
2972
2956
2957
3067
3049
3073
2958
2959
2962
3161
3011
3095
2960
2961
2962
3110
2963
2964
2965
2966
2967
2968
2969
2970
3140
2971
2972
3085
3054
2973
2974
2975
2976
2977
2978
2979
3121
3176
2980
2981
3096
2982
3072
2983
2984
2985
2985
2986
3075
2987
3205
2988
3231
3147
2989
3037
3172
2990
2991
2992
2993
2994
3222
2995
2996
2997
3060
2998
2999
3000